data_NIMS_MatNavi_4295525819_1_2

#
# COPYRIGHT NOTICE
#
# This CIF data is created using data from AtomWork, published 2010/06 by
# National Institute for Materials Science (NIMS), Tsukuba, Japan. Copyright
# 2010 by NIMS and  Materials Phases Data system (MPDS), Vitznau,
# Switzerland. All Rghts Reserved.
#
# DISCLAIMER
#
# The values reported here are taken from the literature and other sources and
# the author does not warrant their correctness nor accept any
# responsibility for errors. Users are advised to consult the primarysources.
#

_chemical_formula_sum 'O3 Sr Ti'
_space_group_crystal_system tetragonal
_symmetry_space_group_name_H-M 'I 4/m c m'
_symmetry_Int_Tables_number 140

loop_
    _symmetry_equiv_pos_site_id
    _symmetry_equiv_pos_as_xyz
1 x,y,z
2 -x,-y,z
3 -y,x,z
4 y,-x,z
5 -x,y,-z+1/2
6 x,-y,-z+1/2
7 y,x,-z+1/2
8 -y,-x,-z+1/2
9 -x,-y,-z
10 x,y,-z
11 y,-x,-z
12 -y,x,-z
13 x,-y,z+1/2
14 -x,y,z+1/2
15 -y,-x,z+1/2
16 y,x,z+1/2
17 x+1/2,y+1/2,z+1/2
18 -x+1/2,-y+1/2,z+1/2
19 -y+1/2,x+1/2,z+1/2
20 y+1/2,-x+1/2,z+1/2
21 -x+1/2,y+1/2,-z
22 x+1/2,-y+1/2,-z
23 y+1/2,x+1/2,-z
24 -y+1/2,-x+1/2,-z
25 -x+1/2,-y+1/2,-z+1/2
26 x+1/2,y+1/2,-z+1/2
27 y+1/2,-x+1/2,-z+1/2
28 -y+1/2,x+1/2,-z+1/2
29 x+1/2,-y+1/2,z
30 -x+1/2,y+1/2,z
31 -y+1/2,-x+1/2,z
32 y+1/2,x+1/2,z

_cell_length_a 5.5149
_cell_length_b 5.5149
_cell_length_c 7.794
_cell_angle_alpha 90
_cell_angle_beta 90
_cell_angle_gamma 90
_cell_volume 237.0
_cell_formula_units_Z 4

loop_
    _atom_site_label
    _atom_site_fract_x
    _atom_site_fract_y
    _atom_site_fract_z
    _atom_site_occupancy
    _atom_site_symmetry_multiplicity
    _atom_site_Wyckoff_symbol
    _atom_site_U_iso_or_equiv
    _atom_site_type_symbol
O2 0.2423 0.7423 0 1.0 8 h 0.005953 O
B 0 0 0 1.0 4 c 0.005953 Ti
A 0 0.5 0.25 1.0 4 b 0.005953 Sr
O1 0 0 0.25 1.0 4 a 0.005953 O

_publ_section_title 'Determination of the Crystal Structure of Perovskites with the Space Group 14/mcm'
_journal_coden_ASTM JUPSAU
_journal_name_full 'J. Phys. Soc. Jpn.'
_journal_year 1978
_journal_volume 45
_journal_page_first 206
_journal_page_last 211
_journal_language English

loop_
    _publ_author_name
'Okazaki A.'
'Ono M.'
